
     Program PHONON v.7.2 starts on  1Feb2024 at 16: 9:49 

     This program is part of the open-source Quantum ESPRESSO suite
     for quantum simulation of materials; please cite
         "P. Giannozzi et al., J. Phys.:Condens. Matter 21 395502 (2009);
         "P. Giannozzi et al., J. Phys.:Condens. Matter 29 465901 (2017);
         "P. Giannozzi et al., J. Chem. Phys. 152 154105 (2020);
          URL http://www.quantum-espresso.org", 
     in publications or presentations arising from this work. More details at
     http://www.quantum-espresso.org/quote

     Parallel version (MPI), running on    48 processors

     MPI processes distributed on     1 nodes
     831929 MiB available memory on the printing compute node when the environment starts

     Reading input from ph.in

     Reading xml data from directory:

     ./out/aiida.save/

     K-points division:     npool     =       2
     R & G space division:  proc/nbgrp/npool/nimage =      24
     Subspace diagonalization in iterative solution of the eigenvalue problem:
     one sub-group per band group will be used
     scalapack distributed-memory algorithm (size of sub-group:  2*  2 procs)

     file O.pbe-n-kjpaw_psl.0.1.UPF: wavefunction(s)  2P renormalized

     IMPORTANT: XC functional enforced from input :
     Exchange-correlation= PBE
                           (   1   4   3   4   0   0   0)
     Any further DFT definition will be discarded
     Please, verify this is what you really want


     Parallelization info
     --------------------
     sticks:   dense  smooth     PW     G-vecs:    dense   smooth      PW
     Min         205     205     56                10903    10903    1552
     Max         207     207     57                10906    10906    1555
     Sum        4941    4941   1353               261691   261691   37281

     Using Slab Decomposition


     Check: negative core charge=   -0.000005

     negative rho (up, down):  5.383E-01 0.000E+00
     Reading collected, re-writing distributed wavefunctions in ./out/


     Dynamical matrices for ( 1, 1, 1)  uniform grid of q-points
     (   1 q-points):
       N         xq(1)         xq(2)         xq(3) 
       1   0.000000000   0.000000000   0.000000000

     Calculation of q =    0.0000000   0.0000000   0.0000000

     phonons of polyyne with QE6.0                                              

     bravais-lattice index     =            0
     lattice parameter (alat)  =      14.8796  a.u.
     unit-cell volume          =    3308.2642 (a.u.)^3
     number of atoms/cell      =           40
     number of atomic types    =            3
     kinetic-energy cut-off    =      70.0000  Ry
     charge density cut-off    =     280.0000  Ry
     convergence threshold     =      1.0E-14
     beta                      =       0.7000
     number of iterations used =            4
     Exchange-correlation= PBE
                           (   1   4   3   4   0   0   0)


     celldm(1)=   14.87962  celldm(2)=    0.00000  celldm(3)=    0.00000
     celldm(4)=    0.00000  celldm(5)=    0.00000  celldm(6)=    0.00000

     crystal axes: (cart. coord. in units of alat)
               a(1) = (  1.0000  0.0000  0.0000 )  
               a(2) = (  0.0000  1.0000  0.0000 )  
               a(3) = (  0.0000  0.0000  1.0042 )  

     reciprocal axes: (cart. coord. in units 2 pi/alat)
               b(1) = (  1.0000  0.0000  0.0000 )  
               b(2) = (  0.0000  1.0000  0.0000 )  
               b(3) = (  0.0000  0.0000  0.9958 )  


     Atoms inside the unit cell: 

     Cartesian axes

     site n.  atom      mass           positions (alat units)
        1     Ti  47.8670   tau(    1) = (    0.50000    0.00000    0.00000  )
        2     O   15.9994   tau(    2) = (    0.25000    0.02093    0.00000  )
        3     O   15.9994   tau(    3) = (    0.50000    0.00000    0.25105  )
        4     Ti  47.8670   tau(    4) = (    0.50000    0.00000    0.50211  )
        5     O   15.9994   tau(    5) = (    0.52093    0.25000    0.00000  )
        6     O   15.9994   tau(    6) = (    0.75000    0.02093    0.50211  )
        7     O   15.9994   tau(    7) = (    0.47907    0.25000    0.50211  )
        8     O   15.9994   tau(    8) = (    0.50000    0.00000    0.75316  )
        9     Sr  87.6200   tau(    9) = (    0.25000    0.25000    0.25105  )
       10     Ti  47.8670   tau(   10) = (    0.00000    0.00000    0.00000  )
       11     Ti  47.8670   tau(   11) = (    0.00000    0.50000    0.00000  )
       12     O   15.9994   tau(   12) = (    0.02093    0.25000    0.50211  )
       13     O   15.9994   tau(   13) = (    0.25000    0.47907    0.00000  )
       14     O   15.9994   tau(   14) = (    0.00000    0.50000    0.25105  )
       15     O   15.9994   tau(   15) = (    0.00000    0.00000    0.25105  )
       16     Sr  87.6200   tau(   16) = (    0.25000    0.25000    0.75316  )
       17     Ti  47.8670   tau(   17) = (    0.00000    0.50000    0.50211  )
       18     Ti  47.8670   tau(   18) = (    0.00000    0.00000    0.50211  )
       19     O   15.9994   tau(   19) = (    0.02093    0.75000    0.00000  )
       20     O   15.9994   tau(   20) = (    0.25000    0.52093    0.50211  )
       21     O   15.9994   tau(   21) = (    0.00000    0.00000    0.75316  )
       22     O   15.9994   tau(   22) = (    0.00000    0.50000    0.75316  )
       23     Sr  87.6200   tau(   23) = (    0.75000    0.25000    0.25105  )
       24     O   15.9994   tau(   24) = (    0.75000    0.52093    0.00000  )
       25     O   15.9994   tau(   25) = (    0.97907    0.25000    0.00000  )
       26     Sr  87.6200   tau(   26) = (    0.75000    0.25000    0.75316  )
       27     O   15.9994   tau(   27) = (    0.75000    0.47907    0.50211  )
       28     O   15.9994   tau(   28) = (    0.97907    0.75000    0.50211  )
       29     Sr  87.6200   tau(   29) = (    0.75000    0.75000    0.25105  )
       30     Sr  87.6200   tau(   30) = (    0.25000    0.75000    0.25105  )
       31     Ti  47.8670   tau(   31) = (    0.50000    0.50000    0.00000  )
       32     O   15.9994   tau(   32) = (    0.52093    0.75000    0.50211  )
       33     O   15.9994   tau(   33) = (    0.75000    0.97907    0.00000  )
       34     O   15.9994   tau(   34) = (    0.47907    0.75000    0.00000  )
       35     O   15.9994   tau(   35) = (    0.50000    0.50000    0.25105  )
       36     Sr  87.6200   tau(   36) = (    0.25000    0.75000    0.75316  )
       37     Sr  87.6200   tau(   37) = (    0.75000    0.75000    0.75316  )
       38     Ti  47.8670   tau(   38) = (    0.50000    0.50000    0.50211  )
       39     O   15.9994   tau(   39) = (    0.25000    0.97907    0.50211  )
       40     O   15.9994   tau(   40) = (    0.50000    0.50000    0.75316  )

     Computing dynamical matrix for 
                    q = (   0.0000000   0.0000000   0.0000000 )

      9 Sym.Ops. (with q -> -q+G )


     G cutoff = 1570.2979  (  10904 G-vectors)     FFT grid: ( 80, 80, 80)
     number of k points=    18

     PseudoPot. # 1 for O  read from file:
     ./pseudo/O.pbe-n-kjpaw_psl.0.1.UPF
     MD5 check sum: 0234752ac141de4415c5fc33072bef88
     Pseudo is Projector augmented-wave + core cor, Zval =  6.0
     Generated using "atomic" code by A. Dal Corso  v.5.0.99 svn rev. 10869
     Shape of augmentation charge: BESSEL
     Using radial grid of 1095 points,  4 beta functions with: 
                l(1) =   0
                l(2) =   0
                l(3) =   1
                l(4) =   1
     Q(r) pseudized with 0 coefficients 


     PseudoPot. # 2 for Sr read from file:
     ./pseudo/Sr_pbe_v1.uspp.F.UPF
     MD5 check sum: 6b418c05fbe9db5448babca5e47b7a5b
     Pseudo is Ultrasoft + core correction, Zval = 10.0
     Generated by new atomic code, or converted to UPF format
     Using radial grid of  883 points,  6 beta functions with: 
                l(1) =   0
                l(2) =   0
                l(3) =   1
                l(4) =   1
                l(5) =   2
                l(6) =   2
     Q(r) pseudized with  6 coefficients,  rinner =    1.400   1.400   1.400
                                                       1.400   1.400

     PseudoPot. # 3 for Ti read from file:
     ./pseudo/ti_pbe_v1.4.uspp.F.UPF
     MD5 check sum: 88a00a6731bd790ddea75d31a80cb452
     Pseudo is Ultrasoft + core correction, Zval = 12.0
     Generated by new atomic code, or converted to UPF format
     Using radial grid of  851 points,  6 beta functions with: 
                l(1) =   0
                l(2) =   0
                l(3) =   1
                l(4) =   1
                l(5) =   2
                l(6) =   2
     Q(r) pseudized with  6 coefficients,  rinner =    1.000   1.000   1.000
                                                       1.000   1.000


     Electric field:
     Dielectric constant
     Born effective charges in two ways 


     Atomic displacements:
     There are   86 irreducible representations

     Representation     1      2 modes -  To be done

     Representation     2      1 modes -  To be done

     Representation     3      1 modes -  To be done

     Representation     4      1 modes -  To be done

     Representation     5      2 modes -  To be done

     Representation     6      1 modes -  To be done

     Representation     7      2 modes -  To be done

     Representation     8      2 modes -  To be done

     Representation     9      1 modes -  To be done

     Representation    10      1 modes -  To be done

     Representation    11      2 modes -  To be done

     Representation    12      2 modes -  To be done

     Representation    13      1 modes -  To be done

     Representation    14      2 modes -  To be done

     Representation    15      2 modes -  To be done

     Representation    16      2 modes -  To be done

     Representation    17      1 modes -  To be done

     Representation    18      2 modes -  To be done

     Representation    19      1 modes -  To be done

     Representation    20      2 modes -  To be done

     Representation    21      1 modes -  To be done

     Representation    22      1 modes -  To be done

     Representation    23      1 modes -  To be done

     Representation    24      2 modes -  To be done

     Representation    25      1 modes -  To be done

     Representation    26      2 modes -  To be done

     Representation    27      1 modes -  To be done

     Representation    28      2 modes -  To be done

     Representation    29      1 modes -  To be done

     Representation    30      1 modes -  To be done

     Representation    31      1 modes -  To be done

     Representation    32      2 modes -  To be done

     Representation    33      1 modes -  To be done

     Representation    34      1 modes -  To be done

     Representation    35      2 modes -  To be done

     Representation    36      1 modes -  To be done

     Representation    37      1 modes -  To be done

     Representation    38      1 modes -  To be done

     Representation    39      1 modes -  To be done

     Representation    40      1 modes -  To be done

     Representation    41      1 modes -  To be done

     Representation    42      1 modes -  To be done

     Representation    43      2 modes -  To be done

     Representation    44      2 modes -  To be done

     Representation    45      2 modes -  To be done

     Representation    46      2 modes -  To be done

     Representation    47      2 modes -  To be done

     Representation    48      1 modes -  To be done

     Representation    49      1 modes -  To be done

     Representation    50      2 modes -  To be done

     Representation    51      1 modes -  To be done

     Representation    52      2 modes -  To be done

     Representation    53      1 modes -  To be done

     Representation    54      2 modes -  To be done

     Representation    55      1 modes -  To be done

     Representation    56      1 modes -  To be done

     Representation    57      1 modes -  To be done

     Representation    58      1 modes -  To be done

     Representation    59      1 modes -  To be done

     Representation    60      2 modes -  To be done

     Representation    61      2 modes -  To be done

     Representation    62      1 modes -  To be done

     Representation    63      1 modes -  To be done

     Representation    64      1 modes -  To be done

     Representation    65      2 modes -  To be done

     Representation    66      2 modes -  To be done

     Representation    67      1 modes -  To be done

     Representation    68      1 modes -  To be done

     Representation    69      2 modes -  To be done

     Representation    70      1 modes -  To be done

     Representation    71      1 modes -  To be done

     Representation    72      2 modes -  To be done

     Representation    73      2 modes -  To be done

     Representation    74      2 modes -  To be done

     Representation    75      2 modes -  To be done

     Representation    76      1 modes -  To be done

     Representation    77      2 modes -  To be done

     Representation    78      1 modes -  To be done

     Representation    79      1 modes -  To be done

     Representation    80      1 modes -  To be done

     Representation    81      1 modes -  To be done

     Representation    82      1 modes -  To be done

     Representation    83      1 modes -  To be done

     Representation    84      1 modes -  To be done

     Representation    85      1 modes -  To be done

     Representation    86      1 modes -  To be done



     Alpha used in Ewald sum =   2.2000

     negative rho (up, down):  5.383E-01 0.000E+00
     PHONON       :   2m56.60s CPU   3m 0.61s WALL


     Electric Fields Calculation

      iter #   1 total cpu time :   380.5 secs   av.it.:   8.1
      thresh= 1.000E-02 alpha_mix =  0.700 |ddv_scf|^2 =  3.487E-09

      iter #   2 total cpu time :   468.6 secs   av.it.:  18.4
      thresh= 5.905E-06 alpha_mix =  0.700 |ddv_scf|^2 =  2.293E-09

      iter #   3 total cpu time :   550.3 secs   av.it.:  16.5
      thresh= 4.788E-06 alpha_mix =  0.700 |ddv_scf|^2 =  1.750E-09

      iter #   4 total cpu time :   628.0 secs   av.it.:  15.8
      thresh= 4.183E-06 alpha_mix =  0.700 |ddv_scf|^2 =  2.749E-11

      iter #   5 total cpu time :   710.2 secs   av.it.:  16.8
      thresh= 5.243E-07 alpha_mix =  0.700 |ddv_scf|^2 =  6.293E-13

      iter #   6 total cpu time :   794.5 secs   av.it.:  17.6
      thresh= 7.933E-08 alpha_mix =  0.700 |ddv_scf|^2 =  4.347E-14

      iter #   7 total cpu time :   880.7 secs   av.it.:  18.2
      thresh= 2.085E-08 alpha_mix =  0.700 |ddv_scf|^2 =  5.712E-15

     End of electric fields calculation

          Dielectric constant in cartesian axis 

          (       6.312599661       0.000000002       0.000000000 )
          (      -0.000000002       6.312599661       0.000000000 )
          (       0.000000000       0.000000000       6.335250418 )

          Effective charges (d Force / dE) in cartesian axis without acoustic sum rule applied (asr)

           atom      1   Ti Mean Z*:        7.31737
      Ex  (        7.31281       -0.30254        0.00000 )
      Ey  (        0.30285        7.31021        0.00000 )
      Ez  (        0.00000        0.00000        7.32910 )
           atom      2   O  Mean Z*:       -3.28790
      Ex  (       -5.82101        0.00003        0.00000 )
      Ey  (       -0.00005       -2.01095        0.00000 )
      Ez  (        0.00000        0.00000       -2.03174 )
           atom      3   O  Mean Z*:       -3.28159
      Ex  (       -2.00686        0.00031        0.00000 )
      Ey  (       -0.00010       -2.00745        0.00000 )
      Ez  (        0.00000        0.00000       -5.83045 )
           atom      4   Ti Mean Z*:        7.31561
      Ex  (        7.31197        0.30455        0.00000 )
      Ey  (       -0.30364        7.31129        0.00000 )
      Ez  (        0.00000        0.00000        7.32358 )
           atom      5   O  Mean Z*:       -3.28752
      Ex  (       -2.01014        0.00004       -0.00000 )
      Ey  (        0.00008       -5.82092        0.00000 )
      Ez  (        0.00000        0.00000       -2.03151 )
           atom      6   O  Mean Z*:       -3.28855
      Ex  (       -5.82131        0.00017        0.00000 )
      Ey  (        0.00004       -2.01083        0.00000 )
      Ez  (        0.00000        0.00000       -2.03350 )
           atom      7   O  Mean Z*:       -3.28861
      Ex  (       -2.01056       -0.00004       -0.00000 )
      Ey  (        0.00012       -5.82146        0.00000 )
      Ez  (        0.00000        0.00000       -2.03381 )
           atom      8   O  Mean Z*:       -3.28159
      Ex  (       -2.00686        0.00031        0.00000 )
      Ey  (       -0.00010       -2.00745        0.00000 )
      Ez  (        0.00000        0.00000       -5.83045 )
           atom      9   Sr Mean Z*:        2.53248
      Ex  (        2.51825       -0.00098        0.00037 )
      Ey  (       -0.00098        2.51748        0.00016 )
      Ez  (        0.00025        0.00025        2.56173 )
           atom     10   Ti Mean Z*:        7.31848
      Ex  (        7.31376        0.30303        0.00000 )
      Ey  (       -0.30303        7.31376        0.00000 )
      Ez  (        0.00000        0.00000        7.32792 )
           atom     11   Ti Mean Z*:        7.31737
      Ex  (        7.31021       -0.30285        0.00000 )
      Ey  (        0.30254        7.31281        0.00000 )
      Ez  (        0.00000        0.00000        7.32910 )
           atom     12   O  Mean Z*:       -3.28855
      Ex  (       -2.01083       -0.00004        0.00000 )
      Ey  (       -0.00017       -5.82131        0.00000 )
      Ez  (        0.00000        0.00000       -2.03350 )
           atom     13   O  Mean Z*:       -3.28752
      Ex  (       -5.82092       -0.00008        0.00000 )
      Ey  (       -0.00004       -2.01014       -0.00000 )
      Ez  (        0.00000        0.00000       -2.03151 )
           atom     14   O  Mean Z*:       -3.28159
      Ex  (       -2.00745        0.00010        0.00000 )
      Ey  (       -0.00031       -2.00686        0.00000 )
      Ez  (        0.00000        0.00000       -5.83045 )
           atom     15   O  Mean Z*:       -3.28087
      Ex  (       -2.00635       -0.00010        0.00000 )
      Ey  (        0.00010       -2.00635        0.00000 )
      Ez  (        0.00000        0.00000       -5.82990 )
           atom     16   Sr Mean Z*:        2.53248
      Ex  (        2.51825       -0.00098       -0.00037 )
      Ey  (       -0.00098        2.51748       -0.00016 )
      Ez  (       -0.00025       -0.00025        2.56173 )
           atom     17   Ti Mean Z*:        7.31561
      Ex  (        7.31129        0.30364        0.00000 )
      Ey  (       -0.30455        7.31197        0.00000 )
      Ez  (        0.00000        0.00000        7.32358 )
           atom     18   Ti Mean Z*:        7.31786
      Ex  (        7.31471       -0.30381        0.00000 )
      Ey  (        0.30381        7.31471        0.00000 )
      Ez  (        0.00000        0.00000        7.32417 )
           atom     19   O  Mean Z*:       -3.28790
      Ex  (       -2.01095        0.00005        0.00000 )
      Ey  (       -0.00003       -5.82101        0.00000 )
      Ez  (        0.00000        0.00000       -2.03174 )
           atom     20   O  Mean Z*:       -3.28861
      Ex  (       -5.82146       -0.00012        0.00000 )
      Ey  (        0.00004       -2.01056        0.00000 )
      Ez  (        0.00000        0.00000       -2.03381 )
           atom     21   O  Mean Z*:       -3.28087
      Ex  (       -2.00635       -0.00010        0.00000 )
      Ey  (        0.00010       -2.00635        0.00000 )
      Ez  (        0.00000        0.00000       -5.82990 )
           atom     22   O  Mean Z*:       -3.28159
      Ex  (       -2.00745        0.00010        0.00000 )
      Ey  (       -0.00031       -2.00686        0.00000 )
      Ez  (        0.00000        0.00000       -5.83045 )
           atom     23   Sr Mean Z*:        2.53248
      Ex  (        2.51748        0.00098       -0.00016 )
      Ey  (        0.00098        2.51825        0.00037 )
      Ez  (       -0.00025        0.00025        2.56173 )
           atom     24   O  Mean Z*:       -3.28752
      Ex  (       -5.82092       -0.00008        0.00000 )
      Ey  (       -0.00004       -2.01014        0.00000 )
      Ez  (        0.00000        0.00000       -2.03151 )
           atom     25   O  Mean Z*:       -3.28790
      Ex  (       -2.01095        0.00005        0.00000 )
      Ey  (       -0.00003       -5.82101        0.00000 )
      Ez  (        0.00000        0.00000       -2.03174 )
           atom     26   Sr Mean Z*:        2.53248
      Ex  (        2.51748        0.00098        0.00016 )
      Ey  (        0.00098        2.51825       -0.00037 )
      Ez  (        0.00025       -0.00025        2.56173 )
           atom     27   O  Mean Z*:       -3.28861
      Ex  (       -5.82146       -0.00012        0.00000 )
      Ey  (        0.00004       -2.01056        0.00000 )
      Ez  (        0.00000        0.00000       -2.03381 )
           atom     28   O  Mean Z*:       -3.28855
      Ex  (       -2.01083       -0.00004        0.00000 )
      Ey  (       -0.00017       -5.82131        0.00000 )
      Ez  (        0.00000        0.00000       -2.03350 )
           atom     29   Sr Mean Z*:        2.53248
      Ex  (        2.51825       -0.00098       -0.00037 )
      Ey  (       -0.00098        2.51748       -0.00016 )
      Ez  (       -0.00025       -0.00025        2.56173 )
           atom     30   Sr Mean Z*:        2.53248
      Ex  (        2.51748        0.00098        0.00016 )
      Ey  (        0.00098        2.51825       -0.00037 )
      Ez  (        0.00025       -0.00025        2.56173 )
           atom     31   Ti Mean Z*:        7.32074
      Ex  (        7.31623        0.30271        0.00000 )
      Ey  (       -0.30271        7.31623        0.00000 )
      Ez  (        0.00000        0.00000        7.32974 )
           atom     32   O  Mean Z*:       -3.28861
      Ex  (       -2.01056       -0.00004        0.00000 )
      Ey  (        0.00012       -5.82146        0.00000 )
      Ez  (        0.00000        0.00000       -2.03381 )
           atom     33   O  Mean Z*:       -3.28790
      Ex  (       -5.82101        0.00003        0.00000 )
      Ey  (       -0.00005       -2.01095        0.00000 )
      Ez  (        0.00000        0.00000       -2.03174 )
           atom     34   O  Mean Z*:       -3.28752
      Ex  (       -2.01014        0.00004       -0.00000 )
      Ey  (        0.00008       -5.82092        0.00000 )
      Ez  (        0.00000        0.00000       -2.03151 )
           atom     35   O  Mean Z*:       -3.28059
      Ex  (       -2.00587       -0.00031        0.00000 )
      Ey  (        0.00031       -2.00587        0.00000 )
      Ez  (        0.00000        0.00000       -5.83004 )
           atom     36   Sr Mean Z*:        2.53248
      Ex  (        2.51748        0.00098       -0.00016 )
      Ey  (        0.00098        2.51825        0.00037 )
      Ez  (       -0.00025        0.00025        2.56173 )
           atom     37   Sr Mean Z*:        2.53248
      Ex  (        2.51825       -0.00098        0.00037 )
      Ey  (       -0.00098        2.51748        0.00016 )
      Ez  (        0.00025        0.00025        2.56173 )
           atom     38   Ti Mean Z*:        7.31783
      Ex  (        7.31553       -0.30473        0.00000 )
      Ey  (        0.30473        7.31553        0.00000 )
      Ez  (        0.00000        0.00000        7.32243 )
           atom     39   O  Mean Z*:       -3.28855
      Ex  (       -5.82131        0.00017        0.00000 )
      Ey  (        0.00004       -2.01083        0.00000 )
      Ez  (        0.00000        0.00000       -2.03350 )
           atom     40   O  Mean Z*:       -3.28059
      Ex  (       -2.00587       -0.00031        0.00000 )
      Ey  (        0.00031       -2.00587        0.00000 )
      Ez  (        0.00000        0.00000       -5.83004 )

          Effective charges Sum: Mean:       -0.05882
             -0.05799       -0.00000        0.00000
              0.00000       -0.05799        0.00000
             -0.00000        0.00000       -0.06048

          Effective charges (d Force / dE) in cartesian axis with asr applied: 

           atom      1   Ti Mean Z*:        7.31884
      E*x (        7.31425       -0.30254        0.00000 )
      E*y (        0.30285        7.31166       -0.00000 )
      E*z (       -0.00000       -0.00000        7.33061 )
           atom      2   O  Mean Z*:       -3.28643
      E*x (       -5.81956        0.00003        0.00000 )
      E*y (       -0.00005       -2.00950       -0.00000 )
      E*z (       -0.00000       -0.00000       -2.03023 )
           atom      3   O  Mean Z*:       -3.28012
      E*x (       -2.00541        0.00031        0.00000 )
      E*y (       -0.00010       -2.00600       -0.00000 )
      E*z (       -0.00000       -0.00000       -5.82894 )
           atom      4   Ti Mean Z*:        7.31708
      E*x (        7.31342        0.30455        0.00000 )
      E*y (       -0.30364        7.31274       -0.00000 )
      E*z (       -0.00000       -0.00000        7.32509 )
           atom      5   O  Mean Z*:       -3.28605
      E*x (       -2.00869        0.00004       -0.00000 )
      E*y (        0.00008       -5.81947       -0.00000 )
      E*z (       -0.00000       -0.00000       -2.03000 )
           atom      6   O  Mean Z*:       -3.28708
      E*x (       -5.81986        0.00017        0.00000 )
      E*y (        0.00004       -2.00938       -0.00000 )
      E*z (       -0.00000       -0.00000       -2.03199 )
           atom      7   O  Mean Z*:       -3.28714
      E*x (       -2.00911       -0.00005       -0.00000 )
      E*y (        0.00012       -5.82001       -0.00000 )
      E*z (       -0.00000       -0.00000       -2.03229 )
           atom      8   O  Mean Z*:       -3.28012
      E*x (       -2.00541        0.00031        0.00000 )
      E*y (       -0.00010       -2.00600       -0.00000 )
      E*z (       -0.00000       -0.00000       -5.82894 )
           atom      9   Sr Mean Z*:        2.53395
      E*x (        2.51970       -0.00098        0.00037 )
      E*y (       -0.00098        2.51893        0.00016 )
      E*z (        0.00025        0.00025        2.56324 )
           atom     10   Ti Mean Z*:        7.31995
      E*x (        7.31521        0.30303        0.00000 )
      E*y (       -0.30303        7.31521       -0.00000 )
      E*z (       -0.00000       -0.00000        7.32943 )
           atom     11   Ti Mean Z*:        7.31884
      E*x (        7.31166       -0.30285        0.00000 )
      E*y (        0.30254        7.31425       -0.00000 )
      E*z (       -0.00000       -0.00000        7.33061 )
           atom     12   O  Mean Z*:       -3.28708
      E*x (       -2.00938       -0.00004        0.00000 )
      E*y (       -0.00017       -5.81986       -0.00000 )
      E*z (       -0.00000       -0.00000       -2.03199 )
           atom     13   O  Mean Z*:       -3.28605
      E*x (       -5.81947       -0.00008        0.00000 )
      E*y (       -0.00004       -2.00869       -0.00000 )
      E*z (       -0.00000       -0.00000       -2.03000 )
           atom     14   O  Mean Z*:       -3.28012
      E*x (       -2.00600        0.00010        0.00000 )
      E*y (       -0.00031       -2.00541       -0.00000 )
      E*z (       -0.00000       -0.00000       -5.82894 )
           atom     15   O  Mean Z*:       -3.27939
      E*x (       -2.00490       -0.00010        0.00000 )
      E*y (        0.00010       -2.00490       -0.00000 )
      E*z (       -0.00000       -0.00000       -5.82839 )
           atom     16   Sr Mean Z*:        2.53395
      E*x (        2.51970       -0.00098       -0.00037 )
      E*y (       -0.00098        2.51893       -0.00016 )
      E*z (       -0.00025       -0.00025        2.56324 )
           atom     17   Ti Mean Z*:        7.31708
      E*x (        7.31274        0.30364        0.00000 )
      E*y (       -0.30455        7.31342       -0.00000 )
      E*z (       -0.00000       -0.00000        7.32509 )
           atom     18   Ti Mean Z*:        7.31933
      E*x (        7.31616       -0.30381        0.00000 )
      E*y (        0.30381        7.31616       -0.00000 )
      E*z (       -0.00000       -0.00000        7.32568 )
           atom     19   O  Mean Z*:       -3.28643
      E*x (       -2.00950        0.00005        0.00000 )
      E*y (       -0.00003       -5.81956       -0.00000 )
      E*z (       -0.00000       -0.00000       -2.03023 )
           atom     20   O  Mean Z*:       -3.28714
      E*x (       -5.82001       -0.00012        0.00000 )
      E*y (        0.00005       -2.00911       -0.00000 )
      E*z (       -0.00000       -0.00000       -2.03229 )
           atom     21   O  Mean Z*:       -3.27939
      E*x (       -2.00490       -0.00010        0.00000 )
      E*y (        0.00010       -2.00490       -0.00000 )
      E*z (       -0.00000       -0.00000       -5.82839 )
           atom     22   O  Mean Z*:       -3.28012
      E*x (       -2.00600        0.00010        0.00000 )
      E*y (       -0.00031       -2.00541       -0.00000 )
      E*z (       -0.00000       -0.00000       -5.82894 )
           atom     23   Sr Mean Z*:        2.53395
      E*x (        2.51893        0.00098       -0.00016 )
      E*y (        0.00098        2.51970        0.00037 )
      E*z (       -0.00025        0.00025        2.56324 )
           atom     24   O  Mean Z*:       -3.28605
      E*x (       -5.81947       -0.00008        0.00000 )
      E*y (       -0.00004       -2.00869       -0.00000 )
      E*z (       -0.00000       -0.00000       -2.03000 )
           atom     25   O  Mean Z*:       -3.28643
      E*x (       -2.00950        0.00005        0.00000 )
      E*y (       -0.00003       -5.81956       -0.00000 )
      E*z (       -0.00000       -0.00000       -2.03023 )
           atom     26   Sr Mean Z*:        2.53395
      E*x (        2.51893        0.00098        0.00016 )
      E*y (        0.00098        2.51970       -0.00037 )
      E*z (        0.00025       -0.00025        2.56324 )
           atom     27   O  Mean Z*:       -3.28714
      E*x (       -5.82001       -0.00012        0.00000 )
      E*y (        0.00005       -2.00911       -0.00000 )
      E*z (       -0.00000       -0.00000       -2.03229 )
           atom     28   O  Mean Z*:       -3.28708
      E*x (       -2.00938       -0.00004        0.00000 )
      E*y (       -0.00017       -5.81986       -0.00000 )
      E*z (       -0.00000       -0.00000       -2.03199 )
           atom     29   Sr Mean Z*:        2.53395
      E*x (        2.51970       -0.00098       -0.00037 )
      E*y (       -0.00098        2.51893       -0.00016 )
      E*z (       -0.00025       -0.00025        2.56324 )
           atom     30   Sr Mean Z*:        2.53395
      E*x (        2.51893        0.00098        0.00016 )
      E*y (        0.00098        2.51970       -0.00037 )
      E*z (        0.00025       -0.00025        2.56324 )
           atom     31   Ti Mean Z*:        7.32221
      E*x (        7.31768        0.30271        0.00000 )
      E*y (       -0.30271        7.31768       -0.00000 )
      E*z (       -0.00000       -0.00000        7.33125 )
           atom     32   O  Mean Z*:       -3.28714
      E*x (       -2.00911       -0.00005        0.00000 )
      E*y (        0.00012       -5.82001       -0.00000 )
      E*z (       -0.00000       -0.00000       -2.03229 )
           atom     33   O  Mean Z*:       -3.28643
      E*x (       -5.81956        0.00003        0.00000 )
      E*y (       -0.00005       -2.00950       -0.00000 )
      E*z (       -0.00000       -0.00000       -2.03023 )
           atom     34   O  Mean Z*:       -3.28605
      E*x (       -2.00869        0.00004       -0.00000 )
      E*y (        0.00008       -5.81947       -0.00000 )
      E*z (       -0.00000       -0.00000       -2.03000 )
           atom     35   O  Mean Z*:       -3.27912
      E*x (       -2.00442       -0.00031        0.00000 )
      E*y (        0.00031       -2.00442       -0.00000 )
      E*z (       -0.00000       -0.00000       -5.82853 )
           atom     36   Sr Mean Z*:        2.53395
      E*x (        2.51893        0.00098       -0.00016 )
      E*y (        0.00098        2.51970        0.00037 )
      E*z (       -0.00025        0.00025        2.56324 )
           atom     37   Sr Mean Z*:        2.53395
      E*x (        2.51970       -0.00098        0.00037 )
      E*y (       -0.00098        2.51893        0.00016 )
      E*z (        0.00025        0.00025        2.56324 )
           atom     38   Ti Mean Z*:        7.31930
      E*x (        7.31698       -0.30473        0.00000 )
      E*y (        0.30473        7.31698       -0.00000 )
      E*z (       -0.00000       -0.00000        7.32394 )
           atom     39   O  Mean Z*:       -3.28708
      E*x (       -5.81986        0.00017        0.00000 )
      E*y (        0.00004       -2.00938       -0.00000 )
      E*z (       -0.00000       -0.00000       -2.03199 )
           atom     40   O  Mean Z*:       -3.27912
      E*x (       -2.00442       -0.00031        0.00000 )
      E*y (        0.00031       -2.00442       -0.00000 )
      E*z (       -0.00000       -0.00000       -5.82853 )

     Calling punch_plot_e
     Writing on file  drho                                                                                                                                                                                                                                                            


     Representation #   1 modes #   1   2

     Self-consistent Calculation

      iter #   1 total cpu time :  3483.0 secs   av.it.:   7.1
      thresh= 1.000E-02 alpha_mix =  0.700 |ddv_scf|^2 =  3.004E-07

      iter #   2 total cpu time :  3539.9 secs   av.it.:  18.0
      thresh= 5.481E-05 alpha_mix =  0.700 |ddv_scf|^2 =  1.286E-06

      iter #   3 total cpu time :  3591.1 secs   av.it.:  15.7
      thresh= 1.134E-04 alpha_mix =  0.700 |ddv_scf|^2 =  2.489E-08
